16
Optimized conformer 1 from SMILES: CCCCCCCO | Energy: 0.000000 eV
Si 0.000003 0.000001 0.000001
Si 1.357501 1.357501 1.357500
Si 2.714999 2.715000 -0.000000
Si 4.072498 4.072501 1.357499
Si 2.714998 0.000001 2.715001
Si 4.072499 1.357502 4.072499
Si 5.429999 2.714998 2.715001
Si 6.787502 4.072500 4.072499
Si -0.000001 2.715000 2.714998
Si 1.357499 4.072499 4.072502
Si 2.715002 5.429997 2.714998
Si 4.072501 6.787501 4.072501
Si 2.715002 2.714999 5.430001
Si 4.072502 4.072499 6.787499
Si 5.429999 5.429999 5.429998
Si 6.787498 6.787501 6.787503
16
Optimized conformer 2 from SMILES: CCCCCCCO | Energy: 0.000000 eV
Si 0.000003 0.000002 -0.000001
Si 1.357499 1.357499 1.357501
Si 2.715000 2.715000 -0.000001
Si 4.072499 4.072500 1.357500
Si 2.714999 0.000000 2.714999
Si 4.072497 1.357502 4.072500
Si 5.429998 2.714999 2.715000
Si 6.787501 4.072501 4.072500
Si 0.000000 2.714997 2.714999
Si 1.357500 4.072499 4.072500
Si 2.714998 5.429998 2.714998
Si 4.072501 6.787501 4.072501
Si 2.715003 2.715002 5.430000
Si 4.072501 4.072501 6.787502
Si 5.430000 5.429999 5.429999
Si 6.787499 6.787498 6.787503
