27
Optimized conformer 1 from SMILES: c1ccccc1CCCCC | Energy: -11666.956034 eV
C 2.328302 -1.089345 -0.903524
C 3.633214 -1.380266 -0.533983
C 4.377450 -0.452838 0.180265
C 3.803002 0.761040 0.527620
C 2.497563 1.045197 0.154668
C 1.744484 0.128622 -0.571479
C 0.319423 0.428273 -0.948007
C -0.673750 -0.022706 0.120741
C -2.115307 0.278964 -0.257363
C -3.108269 -0.169298 0.805601
C -4.550319 0.134544 0.423494
H 1.752170 -1.818005 -1.461333
H 4.072183 -2.330306 -0.809717
H 5.398744 -0.673326 0.461717
H 4.375222 1.491354 1.084847
H 2.054498 1.995171 0.429004
H 0.077849 -0.066808 -1.892704
H 0.202248 1.502697 -1.114634
H -0.432291 0.468033 1.069236
H -0.556502 -1.097487 0.293069
H -2.230461 1.355058 -0.431347
H -2.354784 -0.211493 -1.207955
H -2.989552 -1.243659 0.977782
H -2.865309 0.321096 1.753474
H -5.247477 -0.193265 1.196220
H -4.693718 1.207252 0.272385
H -4.818613 -0.368502 -0.508733
27
Optimized conformer 2 from SMILES: c1ccccc1CCCCC | Energy: -11666.956034 eV
C -2.468157 -1.042685 0.455253
C -3.767722 -0.724238 0.820948
C -4.377847 0.409639 0.304986
C -3.674942 1.223983 -0.570759
C -2.375660 0.899391 -0.932002
C -1.756539 -0.240800 -0.430809
C -0.337210 -0.573165 -0.801487
C 0.677373 0.057778 0.149581
C 2.113183 -0.276568 -0.222866
C 3.127442 0.350763 0.722935
C 4.563671 0.013645 0.346862
H -1.997093 -1.929759 0.861719
H -4.307558 -1.366104 1.504967
H -5.394812 0.655338 0.581184
H -4.141956 2.110968 -0.978748
H -1.831897 1.539596 -1.616460
H -0.134279 -0.230383 -1.819934
H -0.202233 -1.658366 -0.799904
H 0.474576 -0.280110 1.171087
H 0.542488 1.144235 0.153568
H 2.313946 0.060683 -1.246331
H 2.245952 -1.364618 -0.228219
H 2.923117 0.013084 1.743818
H 2.991095 1.436758 0.726899
H 5.276286 0.471203 1.034912
H 4.725272 -1.066973 0.362629
H 4.793506 0.366706 -0.661408
27
Optimized conformer 3 from SMILES: c1ccccc1CCCCC | Energy: -11666.960138 eV
C -1.983594 0.349919 0.848596
C -3.011937 1.174467 0.410148
C -3.593554 0.962931 -0.830253
C -3.136440 -0.077476 -1.627503
C -2.110428 -0.896786 -1.183437
C -1.518930 -0.698265 0.061683
C -0.403537 -1.598790 0.530184
C 0.929631 -1.355563 -0.183177
C 1.550499 0.002706 0.113188
C 2.911368 0.175726 -0.549869
C 3.539861 1.530331 -0.252067
H -1.538051 0.521388 1.821235
H -3.362316 1.981687 1.040849
H -4.397829 1.601130 -1.173737
H -3.586449 -0.254047 -2.595796
H -1.766703 -1.711044 -1.810329
H -0.259840 -1.463766 1.605624
H -0.701946 -2.639799 0.380353
H 1.633302 -2.139045 0.115684
H 0.789283 -1.460800 -1.264065
H 1.659705 0.123660 1.197601
H 0.879611 0.801590 -0.219271
H 2.803650 0.049324 -1.631826
H 3.581355 -0.622511 -0.213772
H 2.898910 2.341784 -0.604806
H 3.681666 1.665424 0.823066
H 4.512714 1.635826 -0.734909
27
Optimized conformer 4 from SMILES: c1ccccc1CCCCC | Energy: -11666.960354 eV
C -2.163139 -0.698748 0.062966
C -3.242156 -0.201260 -0.656696
C -3.559096 1.146741 -0.594092
C -2.786984 1.991448 0.191657
C -1.712219 1.488219 0.907686
C -1.383991 0.135610 0.856953
C -0.211222 -0.396094 1.642137
C 1.150930 -0.005629 1.061247
C 1.444809 -0.627102 -0.297296
C 2.838759 -0.280078 -0.804904
C 3.140244 -0.903879 -2.160823
H -1.925789 -1.754596 0.010092
H -3.838951 -0.869188 -1.264850
H -4.401571 1.537389 -1.150638
H -3.028438 3.044767 0.251018
H -1.120896 2.154960 1.524134
H -0.275844 -1.486456 1.691491
H -0.277499 -0.029635 2.669989
H 1.214501 1.084581 0.981162
H 1.931220 -0.310491 1.765928
H 1.347705 -1.717141 -0.226893
H 0.699118 -0.298412 -1.028552
H 3.582989 -0.612018 -0.073505
H 2.937804 0.808125 -0.869812
H 4.141690 -0.644178 -2.507768
H 2.424395 -0.563391 -2.912673
H 3.073632 -1.993544 -2.111252
27
Optimized conformer 5 from SMILES: c1ccccc1CCCCC | Energy: -11666.960354 eV
C 1.893566 -0.176790 -1.721476
C 2.990633 0.669161 -1.678257
C 3.642030 0.906493 -0.475575
C 3.182397 0.292030 0.678828
C 2.081836 -0.554084 0.628398
C 1.422632 -0.803564 -0.570288
C 0.227500 -1.721261 -0.634334
C -1.104627 -0.990533 -0.826247
C -1.508437 -0.120436 0.356166
C -2.874276 0.525887 0.161385
C -3.285804 1.392728 1.343657
H 1.397284 -0.361302 -2.666925
H 3.343978 1.140418 -2.586205
H 4.501743 1.563607 -0.440788
H 3.684269 0.468648 1.621735
H 1.732523 -1.032318 1.535712
H 0.366942 -2.427873 -1.456782
H 0.178105 -2.312422 0.284138
H -1.888449 -1.734200 -1.002172
H -1.055242 -0.372897 -1.729075
H -1.524805 -0.730413 1.267336
H -0.757382 0.658994 0.521195
H -3.624217 -0.255331 -0.000768
H -2.859844 1.130239 -0.751171
H -2.563856 2.196596 1.505640
H -3.333144 0.801680 2.261636
H -4.265354 1.846942 1.185916
27
Optimized conformer 6 from SMILES: c1ccccc1CCCCC | Energy: -11666.949733 eV
C -1.030929 0.771728 1.477567
C -2.136963 0.334605 2.196166
C -3.343093 0.109835 1.550746
C -3.431952 0.326239 0.182208
C -2.324830 0.762953 -0.528126
C -1.106538 0.993112 0.106689
C 0.088515 1.469407 -0.679974
C 0.689372 0.400863 -1.602286
C 1.256461 -0.827403 -0.893567
C 2.441807 -0.531141 0.018437
C 3.037108 -1.797569 0.621539
H -0.095348 0.951014 1.994293
H -2.057635 0.172406 3.263843
H -4.208104 -0.228655 2.107551
H -4.370001 0.159081 -0.331165
H -2.408673 0.937537 -1.594122
H 0.850621 1.837032 0.009882
H -0.209732 2.323789 -1.293615
H -0.077651 0.079315 -2.312854
H 1.485116 0.864870 -2.194165
H 0.468386 -1.323398 -0.317066
H 1.576508 -1.546140 -1.655453
H 2.134920 0.140648 0.824509
H 3.210346 0.001664 -0.551398
H 3.386045 -2.476680 -0.160414
H 2.292109 -2.333394 1.214777
H 3.884134 -1.571719 1.271520
27
Optimized conformer 7 from SMILES: c1ccccc1CCCCC | Energy: -11666.936141 eV
C -1.774404 -1.412460 0.266268
C -2.748441 -1.585818 -0.704800
C -3.444539 -0.490810 -1.198578
C -3.153885 0.774600 -0.712460
C -2.176222 0.941156 0.260282
C -1.473055 -0.147352 0.765177
C -0.408524 0.025358 1.819565
C 1.019992 -0.142353 1.290953
C 1.438652 0.948827 0.310626
C 2.911673 0.881340 -0.091370
C 3.279176 -0.373040 -0.877307
H -1.242646 -2.275241 0.650175
H -2.970555 -2.578588 -1.074511
H -4.208330 -0.624884 -1.954323
H -3.692287 1.635184 -1.089359
H -1.959012 1.934169 0.635827
H -0.507412 1.015854 2.271805
H -0.579885 -0.702585 2.616815
H 1.708930 -0.137527 2.142000
H 1.112266 -1.125582 0.821567
H 0.816857 0.895810 -0.589230
H 1.239995 1.925316 0.765899
H 3.153774 1.761468 -0.693179
H 3.534783 0.944098 0.807065
H 4.315554 -0.332122 -1.216963
H 2.641613 -0.478236 -1.758592
H 3.165932 -1.276580 -0.275965
27
Optimized conformer 8 from SMILES: c1ccccc1CCCCC | Energy: -11666.936430 eV
C -2.149455 -1.010042 -0.010886
C -3.224153 -0.568301 -0.772309
C -3.563941 0.775709 -0.784064
C -2.819281 1.672386 -0.029791
C -1.748397 1.224706 0.728167
C -1.396581 -0.122935 0.750915
C -0.226902 -0.594198 1.578329
C 1.137908 -0.213944 0.994565
C 1.450591 -0.909623 -0.326471
C 2.873062 -0.664008 -0.828593
C 3.156060 0.790190 -1.191215
H -1.894224 -2.063196 -0.006125
H -3.799502 -1.276337 -1.355569
H -4.403097 1.123153 -1.373651
H -3.078886 2.723218 -0.028493
H -1.178737 1.932319 1.319211
H -0.313091 -0.173332 2.583479
H -0.277653 -1.680931 1.687196
H 1.912977 -0.472899 1.723389
H 1.180618 0.871192 0.867274
H 0.737449 -0.586647 -1.092116
H 1.300833 -1.987495 -0.199863
H 3.050028 -1.290175 -1.707217
H 3.587311 -0.995601 -0.067493
H 3.107030 1.442945 -0.318083
H 2.429171 1.155706 -1.920801
H 4.150862 0.898140 -1.626915
27
Optimized conformer 9 from SMILES: c1ccccc1CCCCC | Energy: -11666.933398 eV
C 2.055568 -1.318291 -0.515328
C 3.228791 -1.769872 0.071327
C 4.028960 -0.893449 0.788093
C 3.645571 0.432271 0.921243
C 2.471404 0.878614 0.332518
C 1.665111 0.012550 -0.400192
C 0.377510 0.493627 -1.014367
C -0.813114 0.357937 -0.064821
C -2.111808 0.848304 -0.691743
C -3.309255 0.821870 0.253103
C -3.712625 -0.577357 0.697280
H 1.435709 -2.010184 -1.073410
H 3.521033 -2.806083 -0.035665
H 4.946366 -1.242293 1.242040
H 4.264511 1.121523 1.480233
H 2.179001 1.916371 0.442102
H 0.482032 1.539874 -1.314446
H 0.173812 -0.069621 -1.929281
H -0.906883 -0.687501 0.238815
H -0.612674 0.923053 0.850748
H -2.335276 0.241770 -1.576069
H -1.964836 1.871448 -1.051135
H -3.085917 1.432158 1.133252
H -4.159400 1.296155 -0.243272
H -2.938635 -1.050010 1.303222
H -4.624659 -0.543977 1.293975
H -3.900296 -1.218885 -0.166773
27
Optimized conformer 10 from SMILES: c1ccccc1CCCCC | Energy: -11666.932944 eV
C -2.409002 0.679605 -0.838166
C -3.598906 1.111539 -0.270673
C -4.063649 0.527076 0.897501
C -3.328906 -0.483909 1.497692
C -2.139646 -0.912080 0.925972
C -1.667798 -0.342806 -0.253086
C -0.362971 -0.790124 -0.856373
C 0.831668 0.004669 -0.328231
C 2.147869 -0.451613 -0.944340
C 3.355841 0.377703 -0.519553
C 3.680590 0.277435 0.964507
H -2.052830 1.142437 -1.751059
H -4.166436 1.901923 -0.743783
H -4.993415 0.858870 1.338906
H -3.684823 -0.943813 2.410047
H -1.571238 -1.702512 1.401925
H -0.207641 -1.852616 -0.649677
H -0.408739 -0.692319 -1.944484
H 0.679564 1.068239 -0.536464
H 0.866719 -0.088977 0.759914
H 2.320809 -1.501729 -0.685132
H 2.057462 -0.415950 -2.034376
H 4.225449 0.053508 -1.096425
H 3.183252 1.425289 -0.783630
H 4.601970 0.813475 1.194073
H 3.815996 -0.764987 1.261738
H 2.888811 0.701665 1.583178
27
Optimized conformer 11 from SMILES: c1ccccc1CCCCC | Energy: -11666.932944 eV
C 2.166845 0.699057 -1.176971
C 3.475590 1.073747 -0.909897
C 4.190478 0.434586 0.091389
C 3.587436 -0.573569 0.827719
C 2.278430 -0.944316 0.556543
C 1.553388 -0.319709 -0.454004
C 0.123984 -0.705441 -0.727194
C -0.871892 0.100375 0.107480
C -2.315608 -0.296530 -0.172382
C -3.339375 0.413482 0.708066
C -3.404466 1.918274 0.485998
H 1.615023 1.204211 -1.961005
H 3.939322 1.862145 -1.487792
H 5.212374 0.721819 0.297821
H 4.138901 -1.075786 1.611488
H 1.814650 -1.732949 1.137413
H -0.098555 -0.563509 -1.788360
H -0.014135 -1.770971 -0.524174
H -0.722842 1.164297 -0.092297
H -0.652692 -0.042395 1.170139
H -2.544817 -0.098855 -1.225106
H -2.416643 -1.377462 -0.034534
H -4.325608 -0.016911 0.517784
H -3.111621 0.210907 1.758805
H -4.211795 2.359276 1.071419
H -2.476935 2.412455 0.777735
H -3.589436 2.146829 -0.566083
27
Optimized conformer 12 from SMILES: c1ccccc1CCCCC | Energy: -11666.932737 eV
C 2.208313 1.116423 0.337867
C 3.569597 1.150357 0.602545
C 4.361130 0.045172 0.324868
C 3.777642 -1.093146 -0.211913
C 2.415203 -1.120403 -0.473457
C 1.612185 -0.015791 -0.208569
C 0.129877 -0.057367 -0.466945
C -0.656585 -0.515913 0.763207
C -2.153093 -0.674769 0.512302
C -2.874679 0.628763 0.188279
C -4.379592 0.436127 0.052264
H 1.596771 1.983924 0.556703
H 4.015275 2.043498 1.021345
H 5.425039 0.072077 0.522569
H 4.386464 -1.960601 -0.432471
H 1.967066 -2.013182 -0.893443
H -0.207608 0.933508 -0.777887
H -0.077502 -0.738455 -1.297361
H -0.243170 -1.468639 1.105733
H -0.497308 0.199220 1.577243
H -2.615824 -1.119667 1.399317
H -2.312066 -1.388175 -0.304885
H -2.665822 1.358838 0.977171
H -2.480437 1.054215 -0.738093
H -4.883827 1.375460 -0.179852
H -4.609817 -0.274914 -0.744889
H -4.807234 0.043440 0.977920
27
Optimized conformer 13 from SMILES: c1ccccc1CCCCC | Energy: -11666.932672 eV
C 2.115446 1.126456 0.761476
C 3.464825 1.416711 0.622836
C 4.341482 0.447947 0.155870
C 3.854891 -0.807849 -0.176632
C 2.503815 -1.091086 -0.036104
C 1.615977 -0.131770 0.440035
C 0.146371 -0.432465 0.565212
C -0.628841 -0.052814 -0.698518
C -2.104060 -0.439309 -0.654427
C -2.913427 0.301893 0.404114
C -4.396853 -0.037838 0.338017
H 1.437073 1.888165 1.127597
H 3.834566 2.399665 0.885144
H 5.396244 0.669222 0.054745
H 4.530625 -1.570774 -0.541493
H 2.131613 -2.074684 -0.297345
H 0.006942 -1.499286 0.762448
H -0.257204 0.104483 1.426183
H -0.153012 -0.534886 -1.557129
H -0.539405 1.026246 -0.862895
H -2.193231 -1.519056 -0.486553
H -2.550468 -0.245663 -1.635291
H -2.775369 1.379828 0.270130
H -2.533026 0.063678 1.400696
H -4.813052 0.222859 -0.638070
H -4.964318 0.498295 1.100263
H -4.557603 -1.107967 0.489708
27
Optimized conformer 14 from SMILES: c1ccccc1CCCCC | Energy: -11666.932672 eV
C -2.432960 -1.018224 -0.608671
C -3.795119 -0.991311 -0.345663
C -4.359997 0.104093 0.291010
C -3.550226 1.166296 0.666624
C -2.189316 1.132997 0.399962
C -1.611662 0.044383 -0.245916
C -0.129880 0.000809 -0.507163
C 0.646850 -0.579537 0.676893
C 2.140797 -0.740650 0.412771
C 2.884902 0.574217 0.206868
C 4.386506 0.368898 0.054004
H -1.999407 -1.877258 -1.107009
H -4.418263 -1.824983 -0.643117
H -5.423590 0.131267 0.490366
H -3.981305 2.025762 1.163816
H -1.563493 1.966841 0.695741
H 0.067108 -0.606487 -1.395328
H 0.224897 1.009699 -0.727917
H 0.498413 0.062337 1.551739
H 0.216726 -1.551935 0.932732
H 2.594518 -1.271009 1.256411
H 2.288940 -1.380574 -0.465031
H 2.687411 1.234070 1.058071
H 2.499323 1.087790 -0.677552
H 4.605845 -0.271709 -0.803632
H 4.806113 -0.112359 0.940711
H 4.906866 1.316576 -0.092991
27
Optimized conformer 15 from SMILES: c1ccccc1CCCCC | Energy: -11666.933150 eV
C 2.085620 -0.672101 1.179673
C 3.209335 -1.278816 0.632602
C 3.793565 -0.759385 -0.512272
C 3.243860 0.369808 -1.104079
C 2.122952 0.970456 -0.552345
C 1.525769 0.460275 0.598012
C 0.306931 1.125643 1.186881
C -0.973132 0.921089 0.369206
C -1.457516 -0.524737 0.345809
C -2.722615 -0.737995 -0.485530
C -3.956772 -0.030891 0.067257
H 1.638964 -1.083797 2.077031
H 3.631391 -2.157748 1.103662
H 4.671132 -1.227794 -0.940121
H 3.694856 0.786181 -1.995609
H 1.707529 1.856472 -1.017927
H 0.145962 0.748344 2.200385
H 0.500944 2.197447 1.279074
H -0.806783 1.262944 -0.657951
H -1.750671 1.564180 0.788727
H -0.661974 -1.165860 -0.045127
H -1.645984 -0.856206 1.374179
H -2.539649 -0.402960 -1.511599
H -2.927085 -1.810294 -0.546342
H -4.135897 -0.317391 1.106876
H -3.853681 1.054993 0.035488
H -4.847051 -0.291859 -0.507715
27
Optimized conformer 16 from SMILES: c1ccccc1CCCCC | Energy: -11666.933150 eV
C -2.025852 -0.367611 -1.149856
C -3.224200 0.329041 -1.166008
C -3.874915 0.626651 0.023733
C -3.313291 0.221690 1.224756
C -2.111642 -0.475512 1.233476
C -1.450156 -0.781575 0.049078
C -0.146137 -1.539586 0.050174
C 1.075188 -0.682521 -0.300253
C 1.395930 0.379202 0.746387
C 2.600967 1.250562 0.391851
C 3.923593 0.491247 0.338814
H -1.531107 -0.601856 -2.085122
H -3.656307 0.636603 -2.109555
H -4.812769 1.167845 0.012623
H -3.813657 0.446454 2.158384
H -1.683134 -0.790916 2.177481
H 0.006309 -1.990902 1.034313
H -0.217417 -2.363711 -0.664418
H 0.913026 -0.197534 -1.268797
H 1.932684 -1.348180 -0.425676
H 1.581255 -0.111577 1.709573
H 0.521733 1.021169 0.889274
H 2.683638 2.053563 1.129202
H 2.421579 1.737788 -0.571981
H 3.939998 -0.244424 -0.466978
H 4.104982 -0.039527 1.277084
H 4.759703 1.173616 0.175758
27
Optimized conformer 17 from SMILES: c1ccccc1CCCCC | Energy: -11666.933715 eV
C 2.035698 1.223352 0.435531
C 3.184394 1.379978 -0.330083
C 3.821814 0.271037 -0.864585
C 3.300106 -0.993500 -0.627282
C 2.154082 -1.142445 0.138229
C 1.503395 -0.037448 0.682308
C 0.257646 -0.215923 1.513808
C -0.982131 -0.612814 0.704783
C -1.464110 0.477028 -0.246860
C -2.688345 0.078988 -1.071277
C -3.947612 -0.155115 -0.241759
H 1.547288 2.096436 0.851967
H 3.584030 2.370686 -0.507093
H 4.718858 0.388833 -1.459573
H 3.792611 -1.866397 -1.036070
H 1.760551 -2.134941 0.323956
H 0.446524 -0.981241 2.271133
H 0.048778 0.712483 2.052266
H -1.779055 -0.868230 1.407543
H -0.767620 -1.522128 0.133244
H -1.701018 1.378442 0.331333
H -0.650596 0.749375 -0.925599
H -2.457169 -0.823948 -1.645543
H -2.889178 0.864311 -1.804953
H -4.809576 -0.343177 -0.884377
H -4.175701 0.718938 0.373832
H -3.843661 -1.012582 0.425120
27
Optimized conformer 18 from SMILES: c1ccccc1CCCCC | Energy: -11666.922604 eV
C 2.528328 0.635183 -0.577119
C 3.794989 0.128007 -0.323290
C 3.955178 -1.206483 0.020041
C 2.838599 -2.024955 0.112342
C 1.575450 -1.511460 -0.143269
C 1.401019 -0.176664 -0.496461
C 0.024112 0.380360 -0.746933
C -0.646217 0.864284 0.540534
C -1.997870 1.541524 0.317633
C -3.071648 0.673652 -0.340230
C -3.403608 -0.593099 0.440147
H 2.413178 1.678911 -0.845629
H 4.660261 0.774572 -0.398087
H 4.942646 -1.606469 0.211692
H 2.953130 -3.067836 0.379446
H 0.708707 -2.158287 -0.070132
H 0.090086 1.213793 -1.452216
H -0.591557 -0.386916 -1.222458
H 0.022579 1.573592 1.035938
H -0.750820 0.020829 1.229036
H -1.846459 2.437964 -0.293028
H -2.375407 1.889298 1.284848
H -2.767357 0.407175 -1.356235
H -3.978985 1.274501 -0.447431
H -4.242467 -1.121918 -0.014583
H -3.677504 -0.356211 1.471139
H -2.558365 -1.283347 0.473683
27
Optimized conformer 19 from SMILES: c1ccccc1CCCCC | Energy: -11666.922604 eV
C -1.647543 -1.331043 0.538667
C -2.950824 -1.802358 0.476378
C -4.012242 -0.910541 0.419638
C -3.756956 0.452995 0.419486
C -2.450638 0.917521 0.481422
C -1.377428 0.034172 0.547314
C 0.041301 0.538544 0.588600
C 0.655011 0.651663 -0.808418
C 2.053506 1.267567 -0.821922
C 3.116788 0.511006 -0.024406
C 3.328148 -0.925883 -0.487569
H -0.824351 -2.034798 0.584069
H -3.139634 -2.868385 0.477153
H -5.030488 -1.275637 0.378511
H -4.578593 1.156792 0.375686
H -2.261076 1.984662 0.481771
H 0.642185 -0.132748 1.206815
H 0.066224 1.519452 1.071907
H -0.003281 1.265722 -1.429236
H 0.669085 -0.337587 -1.274871
H 2.388078 1.345982 -1.861584
H 1.990824 2.292665 -0.441550
H 4.061008 1.055855 -0.110196
H 2.862786 0.517965 1.039222
H 4.163352 -1.386692 0.041771
H 3.549277 -0.962992 -1.557057
H 2.445482 -1.543897 -0.311601
27
Optimized conformer 20 from SMILES: c1ccccc1CCCCC | Energy: -11666.923013 eV
C 1.802622 0.947575 -0.976284
C 3.068045 1.508842 -0.885481
C 4.026050 0.937487 -0.060295
C 3.704159 -0.193641 0.675452
C 2.436085 -0.749527 0.580242
C 1.468640 -0.191532 -0.249833
C 0.084658 -0.780045 -0.333110
C -0.879314 -0.132552 0.663146
C -2.264442 -0.777542 0.692245
C -3.037426 -0.743543 -0.626910
C -3.282647 0.662844 -1.161523
H 1.060661 1.399641 -1.624453
H 3.309484 2.391575 -1.463893
H 5.016537 1.369083 0.006590
H 4.445006 -0.646832 1.322048
H 2.194185 -1.633912 1.158241
H -0.294715 -0.660479 -1.350794
H 0.132864 -1.855348 -0.138755
H -0.960240 0.935455 0.441256
H -0.442342 -0.198093 1.663383
H -2.161330 -1.819526 1.013386
H -2.863876 -0.277738 1.460279
H -3.999931 -1.238980 -0.472262
H -2.514194 -1.335441 -1.383071
H -2.351745 1.158627 -1.443660
H -3.774170 1.285950 -0.410391
H -3.922625 0.637653 -2.044659
