33
Optimized from SMILES: CCCCCCCOCCC | Energy: -12774.442441 eV
6 -4.985698 -0.249239 2.456182
6 -4.000111 0.776158 1.912041
6 -2.879038 0.138623 1.104161
6 -1.892763 1.156173 0.551925
6 -0.770696 0.514800 -0.251596
6 0.214269 1.539636 -0.796630
6 1.320352 0.926943 -1.627584
8 2.100755 0.079781 -0.808722
6 3.146849 -0.547034 -1.518553
6 3.941079 -1.422105 -0.572578
6 5.094212 -2.128951 -1.276455
1 -5.445412 -0.814585 1.642369
1 -4.479749 -0.965505 3.107431
1 -5.784010 0.221917 3.030885
1 -4.525257 1.501084 1.281621
1 -3.563203 1.348586 2.736674
1 -2.341618 -0.582370 1.730826
1 -3.308408 -0.436768 0.275579
1 -2.430323 1.878206 -0.075051
1 -1.463543 1.731562 1.380515
1 -1.202484 -0.055646 -1.083333
1 -0.233751 -0.203719 0.373554
1 0.660868 2.100272 0.030505
1 -0.319151 2.264416 -1.419690
1 1.951510 1.712278 -2.066493
1 0.889855 0.350067 -2.460264
1 2.735789 -1.150895 -2.340967
1 3.799872 0.212451 -1.972875
1 4.319416 -0.798781 0.241091
1 3.264007 -2.154624 -0.126695
1 4.737246 -2.775950 -2.080425
1 5.795286 -1.414922 -1.713662
1 5.653851 -2.751859 -0.579187
